! Touchstone file exported from HFSS 2023.2.0
!        File:           C:/Users/SIVA SRINIVAS/Desktop/EE-414-515-DP6/DP6.aedt
!        Generated:      1:13:20 PM  May 09, 2024
!        Design:         Design Project 6 V0
!        Project:        DP6
!        Setup:          Setup1
!        Solution:       Sweep
!
! Variables:
!        A = 12.7mm
!        B = 8.89mm
!        C = 12.54mm
!        LC = 10mm
!        Lm = 10mm
!        W = 1.13555mm
!        d0 = 2.032mm
!        dp1 = 7.968mm
!        ds = 2.54mm
!        h = 1.27mm
!        ri = 0.635mm
!        ro = 2.032mm
!        rp = 1.27mm
!        t = 18um
!
!Data is not renormalized
# GHz S MA
! Terminal data exported
! Port[1] = 1
! Port[2] = 2
3                              0.175800570398081 -142.130963764625 0.983592599622819 -30.2448880032972 0.983592599622819 -30.2448880032972 0.175594055156442 -98.5773902100882 
! Gamma         0.326878125305129 167.82394449092  0.0851387506489923 91.154792098883  
! Port Impedance         49.1115496067326 0.0258028255529093 48.1224197718087 0.00428720013747007 
3.025                          0.177355568098803 -142.550508792173 0.983306473392769 -30.5005177980405 0.983306473392769 -30.5005177980405 0.177152616394941 -98.6685015564114 
! Gamma         0.32917460007125 169.257187533937 0.0856838409779238 91.9142495188776 
! Port Impedance         49.1046296928696 0.0259227801937389 48.122337639725  0.00436916532256803 
3.05                           0.178912920428692 -142.97040319671 0.983017308577907 -30.7563205141344 0.983017308577907 -30.7563205141344 0.178713649268803 -98.7596458039455 
! Gamma         0.33147045638771 170.691100128689 0.0862282408046453 92.6737062518206 
! Port Impedance         49.0977482179284 0.0260412120622834 48.1222565184681 0.00445012618390609 
3.075                          0.180472656271612 -143.390650813229 0.982725088285845 -31.0122996826953 0.982725088285845 -31.0122996826953 0.180277180796674 -98.8508259653956 
! Gamma         0.333765696237994 172.125681741813 0.086771959871677 93.4331623069392 
! Port Impedance         49.0909051215648 0.026158157900058 48.1221763872913 0.00453010267693284 
3.1                            0.182034804977555 -143.81125557955 0.982429795142632 -31.268458847864 0.982429795142632 -31.268458847864 0.181843238386324 -98.9420449727858 
! Gamma         0.336060322184149 173.560931787855 0.0873150075903194 94.1926176931814 
! Port Impedance         49.0841003093216 0.0262736537654497 48.1220972260491 0.00460911425315003 
3.125                          0.183599396371699 -144.232221528663 0.98213141129022 -31.5248015663393 0.98213141129022 -31.5248015663393 0.183411849847776 -99.0333056832582 
! Gamma         0.338354337307416 174.996849630983 0.087857393060576 94.9520724192324 
! Port Impedance         49.077333653621  0.0263877350369231 48.1220190151745 0.00468717987255076 
3.15                           0.18516646076336 -144.653552781293 0.981829918383844 -31.7813314069267 0.981829918383843 -31.7813314069267 0.184983043406403 -99.1246108847892 
! Gamma         0.340647745153338 176.433434586694 0.0883991250897195 95.7115264935299 
! Port Impedance         49.070604994759  0.0265004364165587 48.1219417356577 0.00476431801595607 
3.175                          0.186736028954845 -145.075253538649 0.981525297589321 -32.0380519501037 0.98152529758932 -32.0380519501036 0.186556847715968 -99.215963301825 
! Gamma         0.342940549681107 177.870685923479 0.0889402122095862 96.4709799242774 
! Port Impedance         49.0639141419026 0.0266117919339129 48.1218653690255 0.00484054669722768 
3.2                            0.188308132250178 -145.497328075369 0.981217529580237 -32.2949667876001 0.981217529580237 -32.2949667876001 0.188133291871568 -99.3073656008444 
! Gamma         0.345232755216886 179.308602864476 0.0894806626926822 97.2304327194581 
! Port Impedance         49.057260874086  0.0267218349501933 48.1217898973214 0.00491588347533725 
3.225                          0.189882802463695 -145.91978073265 0.980906594535055 -32.5520795219951 0.980906594535055 -32.552079521995 0.189712405422473 -99.3988203958506 
! Gamma         0.347524366410871 180.747184589087 0.0900204845671796 97.9898848868457 
! Port Impedance         49.0506449412071 0.0268305981627366 48.1217153030867 0.00499034546627507 
3.25                           0.191460071928485 -146.342615911542 0.980592472134103 -32.8093937663292 0.980592472134102 -32.8093937663292 0.191294218384817 -99.4903302537962 
! Gamma         0.349815388197874 182.186430234571 0.0905596856308731 98.7493364340164 
! Port Impedance         49.0440660650209 0.0269381136097813 48.1216415693427 0.00506394935478308 
3.275                          0.193039973504662 -146.765838066424 0.980275141556456 -33.0669131437331 0.980275141556456 -33.0669131437331 0.192878761254112 -99.5818976999446 
! Gamma         0.352105825761198 183.626338897615 0.0910982734641697 99.5087873683586 
! Port Impedance         49.0375239401301 0.027044412675522 48.1215686795735 0.00513671140589915 
3.3                            0.194622540587457 -147.189451698635 0.979954581476718 -33.3246412870706 0.979954581476718 -33.3246412870706 0.194466065017574 -99.6735252231689 
! Gamma         0.354395684499615 185.066909635865 0.0916362554421714 100.268237697082 
! Port Impedance         49.0310182349722 0.027149526095435 48.1214966177092 0.00520864747630162 
3.325                          0.196207807115112 -147.613461350263 0.979630770061676 -33.5825818385985 0.979630770061677 -33.5825818385985 0.196056161166204 -99.7652152811904 
! Gamma         0.35668496999723 186.508141469448 0.0921736387459156 101.027687427229 
! Port Impedance         49.0245485928005 0.0272534839618641 48.1214253681108 0.0052797730254444 
3.35                           0.197795807576555 -148.037871598091 0.979303684966834 -33.8407384496408 0.979303684966834 -33.8407384496408 0.197649081706622 -99.8569703057576 
! Gamma         0.358973687996054 187.950033382444 0.0927104303728269 101.787136565676 
! Port Impedance         49.0181146326597 0.0273563157298523 48.1213549155541 0.0053501031264748 
3.375                          0.199386577018852 -148.462687047688 0.978973303332838 -34.0991147802781 0.978973303332838 -34.0991147802781 0.199244859172609 -99.9487927077671 
! Gamma         0.361261844371113 189.392584324353 0.0932466371464366 102.546585119152 
! Port Impedance         49.0117159503541 0.0274580502232096 48.1212852452163 0.00541965247692748 
3.4                            0.200980151054397 -148.88791232765 0.97863960178176 -34.357714499052 0.97863960178176 -34.357714499052 0.200843526636334 -100.040684882324 
! Gamma         0.363549445107911 190.835793211515 0.093782265725417 103.306033094233 
! Port Impedance         49.005352119408  0.0275587156408031 48.1212163426615 0.00548843540918934 
3.425                          0.202576565867854 -149.313552083972 0.97830255641327 -34.6165412826834 0.97830255641327 -34.6165412826834 0.202445117719239 -100.132649213746 
! Gamma         0.365836496282094 192.279658928511 0.0943173226119814 104.065480497359 
! Port Impedance         48.9990226920178 0.0276583395630568 48.1211481938278 0.0055564659007312 
3.45                           0.204175858222799 -149.739610974569 0.977962142800663 -34.8755988158054 0.977962142800663 -34.8755988158054 0.204049666602546 -100.224688080503 
! Gamma         0.368123004041165 193.724180329537 0.0948518141596897 104.824927334833 
! Port Impedance         48.9927271999941 0.0277569489586498 48.1210807850144 0.00562375758410325 
3.475                          0.205778065468078 -150.166093663925 0.977618335986766 -35.1348907907094 0.977618335986766 -35.1348907907094 0.205657208037371 -100.316803860103 
! Gamma         0.37040897458809 195.169356239744 0.0953857465807039 105.584373612832 
! Port Impedance         48.9864651556939 0.0278545701913988 48.1210141028697 0.00569032375669231 
3.5                            0.207383225543835 -150.593004817873 0.977271110479708 -35.3944209071054 0.977271110479708 -35.3944209071054 0.207267777354403 -100.408998933907 
! Gamma         0.37269441416668 196.615185456552 0.0959191259525317 106.343819337408 
! Port Impedance         48.9802360529423 0.0279512290273142 48.1209481343794 0.0057561773902397 
3.525                          0.208991376987218 -151.020349098515 0.976920440248559 -35.6541928718936 0.976920440248559 -35.6541928718936 0.208881410473137 -100.501275691888 
! Gamma         0.374979329048603 198.06166675094  0.0964519582242937 107.103264514494 
! Port Impedance         48.9740393679418 0.0280469506418157 48.1208828668555 0.00582133114011933 
3.55                           0.210602558937714 -151.448131159253 0.976566298718824 -35.9142103989501 0.976566298718824 -35.9142103989502 0.21049814391062 -100.593636537321 
! Gamma         0.377263725521908 199.5087988687   0.096984249222548 107.862709149909 
! Port Impedance         48.9678745601706 0.0281417596270968 48.1208182879257 0.00588579735437644 
3.575                          0.212216811142138 -151.87635563996 0.97620865876781 -36.1744772089238 0.97620865876781 -36.1744772089238 0.212118014789691 -100.6860838914  
! Gamma         0.379547609880941 200.956580531668 0.0975160046567055 108.622153249363 
! Port Impedance         48.9617410732671 0.028235679999625 48.1207543855228 0.00594958808252791 
3.6                            0.21383417395921 -152.30502716227 0.97584749271986 -36.4349970290444 0.97584749271986 -36.4349970290444 0.213741060846696 -100.778620197795 
! Gamma         0.381830988417563 202.405010438926 0.0980472301240637 109.381596818461 
! Port Impedance         48.9556383359021 0.0283287352077666 48.1206911478752 0.00601271508412586 
3.625                          0.215454688363741 -152.734150324987 0.975482772341441 -36.6957735929423 0.975482772341441 -36.6957735929424 0.21536732043864 -100.871247927127 
! Gamma         0.38411386741353 203.854087267978 0.0985779311144875 110.141039862703 
! Port Impedance         48.9495657626372 0.0284209481395247 48.1206285634974 0.0060751898370865 
3.65                           0.21707839595039 -153.163729699619 0.975114468836101 -36.9568106404782 0.975114468836101 -36.9568106404782 0.216996832549765 -100.963969581372 
! Gamma         0.386396253133978 205.30380967589  0.099108113014764 110.900482387493 
! Port Impedance         48.9435227547682 0.0285123411303783 48.1205666211808 0.00613702354578688 
3.675                          0.218705338936978 -153.593769826036 0.974742552839296 -37.2181119175825 0.974742552839297 -37.2181119175826 0.218629636797527 -101.056787698183 
! Gamma         0.388678151821893 206.754176300414 0.0996377811126525 111.659924398138 
! Port Impedance         48.9375087011554 0.0286029359712118 48.1205053099849 0.0061982271489325 
3.7                            0.220335560167341 -154.024275208237 0.974366994413081 -37.4796811761049 0.974366994413081 -37.4796811761049 0.220265773437946 -101.149704855137 
! Gamma         0.390959569693493 208.205185761076 0.100166940600656 112.419365899853 
! Port Impedance         48.9315229790377 0.028692753916325 48.1204446192293 0.00625881132719905 
3.725                          0.221969103113711 -154.455250310244 0.973987763040662 -37.7415221736716 0.973987763040663 -37.7415221736716 0.221905283370321 -101.242723673887 
! Gamma         0.393240512934442 209.656836660241 0.100695596579532 113.178806897763 
! Port Impedance         48.9255649548321 0.0287818156915116 48.1203845384855 0.00631878651065202 
3.75                           0.223606011878598 -154.886699552112 0.973604827620838 -38.0036386735515 0.973604827620838 -38.0036386735516 0.223548208141273 -101.335846824236 
! Gamma         0.395520987696805 211.109127584146 0.101223754061565 113.938247396907 
! Port Impedance         48.9196339849174 0.0288701415021976 48.1203250575689 0.00637816288594794 
3.775                          0.225246331196154 -155.318627306054 0.973218156462286 -38.2660344445297 0.973218156462286 -38.2660344445298 0.225194589948114 -101.429077028115 
! Gamma         0.397801000096702 212.562057103914 0.101751417973615 114.69768740224  
! Port Impedance         48.9137294164025 0.0289577510416285 48.1202661665319 0.00643695040332146 
3.8                            0.22689010643302 -155.751037892685 0.972827717277754 -38.5287132607875 0.972827717277754 -38.5287132607875 0.226844471641517 -101.52241706347 
! Gamma         0.40008055621256 214.015623776534 0.102278593159962 115.457126918632 
! Port Impedance         48.9078505878778 0.0290446634990971 48.1202078556564 0.00649515878336267 
3.825                          0.228537383588609 -156.183935577383 0.972433477178112 -38.7916789017894 0.972433477178112 -38.7916789017895 0.228497896727468 -101.615869768047 
! Gamma         0.402359662083926 215.469826145819 0.102805284384968 116.216565950877 
! Port Impedance         48.9019968301511 0.0291308975682015 48.1201501154469 0.0065527975235889 
3.85                           0.230188209294844 -156.617324566765 0.97203540266629 -39.054935152176 0.97203540266629 -39.0549351521761 0.230154909368493 -101.709438043081 
! Gamma         0.404638323710779 216.924662743335 0.103331496335552 116.976004503689 
! Port Impedance         48.8961674669665 0.0292164714551259 48.1200929366242 0.00660987590481586 
3.875                          0.231842630815296 -157.05120900528 0.971633459631112 -39.318485801661 0.971633459631112 -39.318485801661 0.23181555438414 -101.80312485688 
! Gamma         0.406916547053268 218.380132089308 0.103857233623517 117.735442581707 
! Port Impedance         48.8903618157071 0.0293014028869345 48.1200363101187 0.00666640299733267 
3.9                            0.23350069604374 -157.48559297192 0.971227613340995 -39.5823346449329 0.971227613340995 -39.5823346449329 0.233479877250703 -101.896933248302 
! Gamma         0.409194338031858 219.836232693499 0.104382500787726 118.494880189497 
! Port Impedance         48.8845791880805 0.0293857091198711 48.1199802270645 0.00672238766688561 
3.925                          0.235162453502092 -157.920480477045 0.970817828437586 -39.8464854815621 0.970817828437586 -39.8464854815621 0.235147924100188 -101.990866330121 
! Gamma         0.411471702527802 221.292963056065 0.104907302296133 119.254317331552 
! Port Impedance         48.8788188907877 0.0294694069476568 48.1199246787936 0.00677783858047551 
3.95                           0.236827952337722 -158.355875459328 0.970404068929261 -40.1109421159088 0.970404068929261 -40.1109421159089 0.236819741718491 -102.084927292283 
! Gamma         0.413748646383923 222.750321668382 0.105431642547704 120.013754012296 
! Port Impedance         48.873080226175  0.0295525127097781 48.1198696568297 0.0068327642119734 
3.975                          0.238497242320116 -158.791781782813 0.969986298184544 -40.3757083570358 0.969986298184545 -40.3757083570359 0.238495377542799 -102.179119405045 
! Gamma         0.416025175405654 224.208307013852 0.105955525874212 120.773190236083 
! Port Impedance         48.8673624928689 0.0296350422997581 48.1198151528835 0.00688717284755965 
4                              0.24017037383689 -159.228203234093 0.969564478925448 -40.6407880186216 0.969564478925449 -40.6407880186216 0.240174879658195 -102.273446021994 
! Gamma         0.418301295362289 225.666917568684 0.106478956541929 121.532626007202 
! Port Impedance         48.8616649863943 0.0297170111734049 48.1197611588466 0.00694107259099119 
4.025                          0.241847397889128 -159.665143519605 0.969138573220723 -40.9061849188756 0.969138573220724 -40.9061849188757 0.241858296793462 -102.367910582949 
! Gamma         0.420577011988435 227.126151802651 0.107001938753222 122.292061329875 
! Port Impedance         48.8559869997748 0.0297984343570306 48.1197076667871 0.00699447136870178 
4.05                           0.243528366086037 -160.10260626304 0.968708542479032 -41.1719028804547 0.968708542479033 -41.1719028804547 0.24354567831609 -102.462516616734 
! Gamma         0.422852330985609 228.58600817982  0.107524476648062 123.051496208262 
! Port Impedance         48.8503278241172 0.029879326455634 48.1196546689442 0.0070473769347402 
4.075                          0.2452133306389  -160.540595002876 0.96827434744206 -41.4379457303788 0.96827434744206 -41.4379457303789 0.245237074226465 -102.557267743831 
! Gamma         0.425127258023957 230.046485159267 0.108046574305444 123.810930646457 
! Port Impedance         48.8446867491782 0.0299597016610426 48.1196021577237 0.00709979687555107 
4.1                            0.24690234435433 -160.979113190025 0.967835948177573 -41.7043172999474 0.967835948177573 -41.7043172999474 0.24693253515126 -102.652167678901 
! Gamma         0.427401798744084 231.507581195762 0.108568235744744 124.570364648496 
! Port Impedance         48.839063063914  0.0300395737600077 48.1195501256934 0.00715173861460306 
4.125                          0.24859546062679 -161.4181641856  0.967393304072406 -41.9710214246541 0.967393304072407 -41.9710214246541 0.248632112336003 -102.747220233176 
! Gamma         0.429675958758944 232.96929474043  0.109089464926995 125.329798218354 
! Port Impedance         48.8334560570145 0.0301189561422479 48.1194985655787 0.00720320941686918 
4.15                           0.250292733430392 -161.857751258803 0.966946373825425 -42.2380619441001 0.966946373825425 -42.2380619441001 0.250335857636846 -102.842429316715 
! Gamma         0.431949743655782 234.431624241402 0.10961026575611 126.089231359947 
! Port Impedance         48.8278650174186 0.0301978618084363 48.1194474702581 0.0072542163931636 
4.175                          0.251994217309949 -162.297877584928 0.966495115440447 -42.5054427019062 0.966495115440448 -42.5054427019062 0.252043823511511 -102.937798940537 
! Gamma         0.434223158998117 235.894568144429 0.11013064208004 126.848664077133 
! Port Impedance         48.8222892348147 0.0302763033781263 48.1193968327593 0.00730476650433984 
4.2                            0.253699967371278 -162.73854624349 0.966039486219129 -42.7731675456215 0.966039486219129 -42.7731675456216 0.253756063009443 -103.033333218606 
! Gamma         0.436496210327716 237.358124893486 0.110650597691886 127.608096373715 
! Port Impedance         48.816728000124  0.0303542930976126 48.1193466462553 0.0073548665653543 
4.225                          0.255410039270746 -163.179760216469 0.965579442753848 -43.0412403266295 0.965579442753849 -43.0412403266296 0.255472629761145 -103.129036369684 
! Gamma         0.438768903166584 238.822292931348 0.111170136330962 128.36752825344  
! Port Impedance         48.8111806059669 0.0304318428477235 48.1192969040603 0.00740452324919995 
4.25                           0.257124489204045 -163.621522386674 0.965114940920576 -43.3096649000509 0.965114940920577 -43.3096649000509 0.257193577966728 -103.22491271905 
! Gamma         0.441041243018911 240.287070700151 0.111689261683806 129.126959720001 
! Port Impedance         48.8056463471143 0.0305089641515403 48.119247599626  0.00745374309071398 
4.275                          0.258843373894205 -164.063835536234 0.964645935871744 -43.578445124642 0.964645935871744 -43.578445124642 0.258918962383657 -103.320966700074 
! Gamma         0.443313235373001 241.75245664193  0.112207977385166 129.886390777036 
! Port Impedance         48.800124520922  0.030585668182041 48.1191987265381 0.0075025324902639 
4.3                            0.260566750578816 -164.506702345202 0.964172382029134 -43.8475848626892 0.964172382029134 -43.8475848626892 0.260648838313716 -103.417202855653 
! Gamma         0.445584885703138 243.218449199136 0.112726287018933 130.645821428134 
! Port Impedance         48.7946144277495 0.0306619657696647 48.119150278513  0.00755089771731595 
4.325                          0.262294676996479 -164.950125390286 0.96369423307678 -44.1170879798988 0.963694233076781 -44.1170879798988 0.262383261589192 -103.513625839507 
! Gamma         0.447856199471409 244.685046815138 0.113244194119052 131.405251676831 
! Port Impedance         48.7891153713629 0.0307378674097948 48.1191022493937 0.00759884491388983 
4.35                           0.264027211372467 -165.394107143697 0.963211441953921 -44.3869583452813 0.963211441953921 -44.3869583452813 0.264122288558295 -103.610240417336 
! Gamma         0.450127182129441 246.1522479347   0.113761702170402 132.164681526612 
! Port Impedance         48.7836266593228 0.0308133832701569 48.1190546331475 0.00764638009790355 
4.375                          0.2657644124036  -165.838649972125 0.962723960847977 -44.6571998310302 0.962723960847978 -44.6571998310302 0.265865976069808 -103.707051467828 
! Gamma         0.452397839120077 247.620051004446 0.114278814609637 132.924110980916 
! Port Impedance         48.7781476033565 0.0308885231981307 48.1190074238621 0.00769350916641214 
4.4                            0.267506339242331 -166.283756135826 0.962231741187597 -44.9278163123958 0.962231741187597 -44.9278163123958 0.267614381456998 -103.804063983538 
! Gamma         0.454668175878956 249.088454473299 0.114795534826017 133.683540043129 
! Port Impedance         48.7726775197153 0.0309632967279726 48.1189606157429 0.00774023789874392 
4.425                          0.269253051480046 -166.729427787841 0.96173473363577 -45.1988116675519 0.96173473363577 -45.198811667552 0.269367562520786 -103.901283071611 
! Gamma         0.456938197836007 250.557456792914 0.115311866162203 134.442968716593 
! Port Impedance         48.7672157295166 0.0310377130879473 48.1189142031097 0.00778657195953774 
4.45                           0.271004609129575 -167.175666973329 0.961232888083013 -45.4701897774569 0.961232888083013 -45.470189777457 0.271125577512191 -103.998713954377 
! Gamma         0.459207910416848 252.027056418079 0.11582781191504 135.202397004603 
! Port Impedance         48.7617615590723 0.0311117812073668 48.1188681803942 0.00783251690168466 
4.475                          0.27276107260692 -167.622475629027 0.960726153640641 -45.7419545257078 0.960726153640641 -45.7419545257078 0.272888485114058 -104.096361969797 
! Gamma         0.46147731904408 253.49725180711  0.116343375336312 135.961824910407 
! Port Impedance         48.7563143402016 0.0311855097235355 48.1188225421371 0.00787807816917742 
4.5                            0.274522502712204 -168.069855582828 0.960214478634163 -46.014109798388 0.960214478634163 -46.014109798388 0.274656344422102 -104.194232571771 
! Gamma         0.463746429138482 254.968041422226 0.116858559633484 136.721252437209 
! Port Impedance         48.7508734105309 0.0312589069885993 48.1187772829851 0.00792326109987084 
4.525                          0.276288960609843 -168.517808553479 0.959697810596769 -46.2866594839074 0.95969781059677 -46.2866594839075 0.276429214925251 -104.292331330309 
! Gamma         0.466015246120096 256.439423729905 0.117373367970429 137.480679588168 
! Port Impedance         48.7454381137788 0.0313319810762984 48.1187323976887 0.0079680709281563 
4.55                           0.278060507807952 -168.966336150402 0.959176096262947 -46.5596074728369 0.959176096262947 -46.5596074728369 0.278207156485332 -104.390663931561 
! Gamma         0.468283775409202 257.911397201229 0.117887803468134 138.2401063664   
! Port Impedance         48.7400078000283 0.0314047397886218 48.1186878810992 0.00801251278755329 
4.575                          0.279837206136991 -169.415439873634 0.958649281562246 -46.8329576577334 0.958649281562246 -46.8329576577334 0.279990229316102 -104.489236177712 
! Gamma         0.470552022427184 259.383960312209 0.118401869205396 138.999532774979 
! Port Impedance         48.7345818259852 0.0314771906623635 48.1186437281668 0.00805659171322092 
4.6                            0.281619117727657 -169.865121113889 0.958117311613186 -47.1067139329603 0.958117311613187 -47.1067139329603 0.281778493961645 -104.588053986737 
! Gamma         0.472819992597287 260.857111544098 0.118915568219506 139.758958816937 
! Port Impedance         48.7291595552234 0.0315493409755795 48.1185999339375 0.00810031264439222 
4.625                          0.283406304988036 -170.315381152732 0.957580130717328 -47.3808801944987 0.957580130717328 -47.3808801944987 0.283572011274142 -104.687123392028 
! Gamma         0.475087691345257 262.330849383688 0.119428903506916 140.518384495265 
! Port Impedance         48.7237403584175 0.0316211977539443 48.1185564935515 0.00814368042673399 
4.65                           0.285198830580033 -170.766221162885 0.957037682353516 -47.6554603397526 0.957037682353516 -47.6554603397526 0.285370842391054 -104.786450541883 
! Gamma         0.477355124099873 263.805172323591 0.119941878023899 141.277809812913 
! Port Impedance         48.7183236135632 0.0316927677770076 48.1185134022402 0.00818669981463467 
4.675                          0.286996757395081 -171.217642208634 0.956489909172315 -47.9304582673465 0.956489909172314 -47.9304582673465 0.287175048711705 -104.886041698862 
! Gamma         0.479622296293372 265.280078862512 0.120454494687196 142.037234772791 
! Port Impedance         48.7129087061848 0.0317640575843501 48.1184706553248 0.00822937547342294 
4.7                            0.288800148529152 -171.669645246366 0.955936752990629 -48.2058778769158 0.955936752990629 -48.2058778769158 0.288984691873313 -104.985903239023 
! Gamma         0.481889213361753 266.755567505499 0.120966756374658 142.796659377773 
! Port Impedance         48.7074950295309 0.0318350734816386 48.1184282482135 0.00827171198151934 
4.725                          0.290609067257083 -172.122231125219 0.955378154786553 -48.4817230688911 0.955378154786553 -48.4817230688911 0.29079983372647 -105.086041651018 
! Gamma         0.484155880744991 268.231636764185 0.121478665925868 143.55608363069  
! Port Impedance         48.7020819847589 0.0319058215465796 48.1183861763998 0.00831371383252338 
4.75                           0.292423577006246 -172.575400587842 0.954814054694427 -48.7579977442746 0.954814054694427 -48.7579977442746 0.29262053631009 -105.186463535075 
! Gamma         0.486422303887125 269.708285157021 0.121990226142765 144.315507534339 
! Port Impedance         48.696668981107  0.0319763076347728 48.1183444354601 0.00835538543723831 
4.775                          0.294243741329556 -173.029154271275 0.954244392000128 -49.0347058044113 0.954244392000128 -49.0347058044113 0.294446861825858 -105.287175601849 
! Gamma         0.488688488236262 271.185511209488 0.122501439790256 145.07493109148  
! Port Impedance         48.6912554360565 0.0320465373854636 48.1183030210525 0.00839673112563574 
4.8                            0.296069623877876 -173.483492707939 0.953669105136612 -49.311851150753 0.953669105136612 -49.3118511507531 0.296278872612182 -105.388184671157 
! Gamma         0.490954439244463 272.663313454302 0.123012309596815 145.834354304835 
! Port Impedance         48.6858407754815 0.0321165162271943 48.1182619289139 0.00843775514876236 
4.825                          0.297901288371796 -173.93841632674 0.953088131679708 -49.5894376846166 0.953088131679708 -49.5894376846166 0.298116631117684 -105.48949767059 
! Gamma         0.493220162367544 274.141690431605 0.123522838255084 146.593777177092 
! Port Impedance         48.6804244337895 0.0321862493833566 48.1182211548592 0.00847846168059055 
4.85                           0.29973879857285 -174.393925454278 0.95250140834417 -49.867469306937 0.95250140834417 -49.867469306937 0.299960199874234 -105.591121634015 
! Gamma         0.495485663064773 275.620640689148 0.124033028422453 147.353199710902 
! Port Impedance         48.6750058540509 0.0322557418776431 48.1181806947785 0.00851885481981507 
4.875                          0.301582218254177 -174.85002031617 0.951908870980026 -50.1459499180146 0.951908870980026 -50.1459499180146 0.301809641469571 -105.693063699959 
! Gamma         0.497750946798484 277.100162782454 0.124542882721648 148.112621908884 
! Port Impedance         48.6695844881183 0.0323249985393994 48.1181405446361 0.00855893859159752 
4.9                            0.303431611170645 -175.306701038482 0.951310454569182 -50.4248834172582 0.951310454569182 -50.4248834172582 0.303665018519496 -105.795331109882 
! Gamma         0.50001601903359 278.580255274983 0.125052403741301 148.872043773621 
! Port Impedance         48.6641597967367 0.0323940240088787 48.1181007004685 0.00859871694926048 
4.925                          0.305287041028492 -175.763967649257 0.950706093222357 -50.7042737029229 0.950706093222357 -50.7042737029229 0.3055263936397  -105.897931206348 
! Gamma         0.502280885237025 280.060916738275 0.125561594036513 149.631465307664 
! Port Impedance         48.6587312496434 0.0324628227423967 48.1180611583827 0.00863819377593307 
4.95                           0.307148571454485 -176.221820080155 0.950095720176304 -50.9841246718452 0.950095720176304 -50.9841246718452 0.307393829417208 -106.000871431085 
! Gamma         0.504545550877097 281.542145752088 0.126070456129419 150.390886513532 
! Port Impedance         48.6532983256595 0.0325313990173902 48.1180219145549 0.00867737288614961 
4.975                          0.30901626596465 -176.680258168198 0.949479267791343 -51.2644402191737 0.949479267791343 -51.2644402191737 0.309267388381494 -106.104159322943 
! Gamma         0.506810021422765 283.023940904523 0.126578992509736 151.150307393711 
! Port Impedance         48.6478605127714 0.0325997569373784 48.1179829652285 0.00871625802740291 